+ 2.01249 /NodeList/1/DeviceList/1/$ns3::CsmaNetDevice/TxQueue/Enqueue ns3::EthernetHeader ( length/type=0x806, source=00:00:00:00:00:03, destination=ff:ff:ff:ff:ff:ff) ns3::ArpHeader (request source mac: 00-06-00:00:00:00:00:03 source ipv4: 172.16.2.1 dest ipv4: 172.16.2.4) Payload (size=18) ns3::EthernetTrailer (fcs=0)
- 2.01249 /NodeList/1/DeviceList/1/$ns3::CsmaNetDevice/TxQueue/Dequeue ns3::EthernetHeader ( length/type=0x806, source=00:00:00:00:00:03, destination=ff:ff:ff:ff:ff:ff) ns3::ArpHeader (request source mac: 00-06-00:00:00:00:00:03 source ipv4: 172.16.2.1 dest ipv4: 172.16.2.4) Payload (size=18) ns3::EthernetTrailer (fcs=0)
r 2.01583 /NodeList/2/DeviceList/0/$ns3::CsmaNetDevice/MacRx ns3::EthernetHeader ( length/type=0x806, source=00:00:00:00:00:03, destination=ff:ff:ff:ff:ff:ff) ns3::ArpHeader (request source mac: 00-06-00:00:00:00:00:03 source ipv4: 172.16.2.1 dest ipv4: 172.16.2.4) Payload (size=18) ns3::EthernetTrailer (fcs=0)
r 2.01583 /NodeList/3/DeviceList/0/$ns3::CsmaNetDevice/MacRx ns3::EthernetHeader ( length/type=0x806, source=00:00:00:00:00:03, destination=ff:ff:ff:ff:ff:ff) ns3::ArpHeader (request source mac: 00-06-00:00:00:00:00:03 source ipv4: 172.16.2.1 dest ipv4: 172.16.2.4) Payload (size=18) ns3::EthernetTrailer (fcs=0)
r 2.01583 /NodeList/4/DeviceList/0/$ns3::CsmaNetDevice/MacRx ns3::EthernetHeader ( length/type=0x806, source=00:00:00:00:00:03, destination=ff:ff:ff:ff:ff:ff) ns3::ArpHeader (request source mac: 00-06-00:00:00:00:00:03 source ipv4: 172.16.2.1 dest ipv4: 172.16.2.4) Payload (size=18) ns3::EthernetTrailer (fcs=0)
+ 2.01583 /NodeList/4/DeviceList/0/$ns3::CsmaNetDevice/TxQueue/Enqueue ns3::EthernetHeader ( length/type=0x806, source=00:00:00:00:00:06, destination=00:00:00:00:00:03) ns3::ArpHeader (reply source mac: 00-06-00:00:00:00:00:06 source ipv4: 172.16.2.4 dest mac: 00-06-00:00:00:00:00:03 dest ipv4: 172.16.2.1) Payload (size=18) ns3::EthernetTrailer (fcs=0)
- 2.01583 /NodeList/4/DeviceList/0/$ns3::CsmaNetDevice/TxQueue/Dequeue ns3::EthernetHeader ( length/type=0x806, source=00:00:00:00:00:06, destination=00:00:00:00:00:03) ns3::ArpHeader (reply source mac: 00-06-00:00:00:00:00:06 source ipv4: 172.16.2.4 dest mac: 00-06-00:00:00:00:00:03 dest ipv4: 172.16.2.1) Payload (size=18) ns3::EthernetTrailer (fcs=0)
r 2.01918 /NodeList/1/DeviceList/1/$ns3::CsmaNetDevice/MacRx ns3::EthernetHeader ( length/type=0x806, source=00:00:00:00:00:06, destination=00:00:00:00:00:03) ns3::ArpHeader (reply source mac: 00-06-00:00:00:00:00:06 source ipv4: 172.16.2.4 dest mac: 00-06-00:00:00:00:00:03 dest ipv4: 172.16.2.1) Payload (size=18) ns3::EthernetTrailer (fcs=0)
+ 2.01918 /NodeList/1/DeviceList/1/$ns3::CsmaNetDevice/TxQueue/Enqueue ns3::EthernetHeader ( length/type=0x800, source=00:00:00:00:00:03, destination=00:00:00:00:00:06) ns3::Ipv4Header (tos 0x0 DSCP Default ECN Not-ECT ttl 63 id 0 protocol 17 offset (bytes) 0 flags [none] length: 1028 172.16.1.1 > 172.16.2.4) ns3::UdpHeader (length: 1008 49153 > 9) Payload (size=1000) ns3::EthernetTrailer (fcs=0)
- 2.01918 /NodeList/1/DeviceList/1/$ns3::CsmaNetDevice/TxQueue/Dequeue ns3::EthernetHeader ( length/type=0x800, source=00:00:00:00:00:03, destination=00:00:00:00:00:06) ns3::Ipv4Header (tos 0x0 DSCP Default ECN Not-ECT ttl 63 id 0 protocol 17 offset (bytes) 0 flags [none] length: 1028 172.16.1.1 > 172.16.2.4) ns3::UdpHeader (length: 1008 49153 > 9) Payload (size=1000) ns3::EthernetTrailer (fcs=0)
r 2.02776 /NodeList/4/DeviceList/0/$ns3::CsmaNetDevice/MacRx ns3::EthernetHeader ( length/type=0x800, source=00:00:00:00:00:03, destination=00:00:00:00:00:06) ns3::Ipv4Header (tos 0x0 DSCP Default ECN Not-ECT ttl 63 id 0 protocol 17 offset (bytes) 0 flags [none] length: 1028 172.16.1.1 > 172.16.2.4) ns3::UdpHeader (length: 1008 49153 > 9) Payload (size=1000) ns3::EthernetTrailer (fcs=0)
+ 2.03376 /NodeList/4/DeviceList/0/$ns3::CsmaNetDevice/TxQueue/Enqueue ns3::EthernetHeader ( length/type=0x806, source=00:00:00:00:00:06, destination=ff:ff:ff:ff:ff:ff) ns3::ArpHeader (request source mac: 00-06-00:00:00:00:00:06 source ipv4: 172.16.2.4 dest ipv4: 172.16.2.1) Payload (size=18) ns3::EthernetTrailer (fcs=0)
- 2.03376 /NodeList/4/DeviceList/0/$ns3::CsmaNetDevice/TxQueue/Dequeue ns3::EthernetHeader ( length/type=0x806, source=00:00:00:00:00:06, destination=ff:ff:ff:ff:ff:ff) ns3::ArpHeader (request source mac: 00-06-00:00:00:00:00:06 source ipv4: 172.16.2.4 dest ipv4: 172.16.2.1) Payload (size=18) ns3::EthernetTrailer (fcs=0)
r 2.0371 /NodeList/1/DeviceList/1/$ns3::CsmaNetDevice/MacRx ns3::EthernetHeader ( length/type=0x806, source=00:00:00:00:00:06, destination=ff:ff:ff:ff:ff:ff) ns3::ArpHeader (request source mac: 00-06-00:00:00:00:00:06 source ipv4: 172.16.2.4 dest ipv4: 172.16.2.1) Payload (size=18) ns3::EthernetTrailer (fcs=0)
+ 2.0371 /NodeList/1/DeviceList/1/$ns3::CsmaNetDevice/TxQueue/Enqueue ns3::EthernetHeader ( length/type=0x806, source=00:00:00:00:00:03, destination=00:00:00:00:00:06) ns3::ArpHeader (reply source mac: 00-06-00:00:00:00:00:03 source ipv4: 172.16.2.1 dest mac: 00-06-00:00:00:00:00:06 dest ipv4: 172.16.2.4) Payload (size=18) ns3::EthernetTrailer (fcs=0)
- 2.0371 /NodeList/1/DeviceList/1/$ns3::CsmaNetDevice/TxQueue/Dequeue ns3::EthernetHeader ( length/type=0x806, source=00:00:00:00:00:03, destination=00:00:00:00:00:06) ns3::ArpHeader (reply source mac: 00-06-00:00:00:00:00:03 source ipv4: 172.16.2.1 dest mac: 00-06-00:00:00:00:00:06 dest ipv4: 172.16.2.4) Payload (size=18) ns3::EthernetTrailer (fcs=0)
r 2.0371 /NodeList/2/DeviceList/0/$ns3::CsmaNetDevice/MacRx ns3::EthernetHeader ( length/type=0x806, source=00:00:00:00:00:06, destination=ff:ff:ff:ff:ff:ff) ns3::ArpHeader (request source mac: 00-06-00:00:00:00:00:06 source ipv4: 172.16.2.4 dest ipv4: 172.16.2.1) Payload (size=18) ns3::EthernetTrailer (fcs=0)
r 2.0371 /NodeList/3/DeviceList/0/$ns3::CsmaNetDevice/MacRx ns3::EthernetHeader ( length/type=0x806, source=00:00:00:00:00:06, destination=ff:ff:ff:ff:ff:ff) ns3::ArpHeader (request source mac: 00-06-00:00:00:00:00:06 source ipv4: 172.16.2.4 dest ipv4: 172.16.2.1) Payload (size=18) ns3::EthernetTrailer (fcs=0)
r 2.04044 /NodeList/4/DeviceList/0/$ns3::CsmaNetDevice/MacRx ns3::EthernetHeader ( length/type=0x806, source=00:00:00:00:00:03, destination=00:00:00:00:00:06) ns3::ArpHeader (reply source mac: 00-06-00:00:00:00:00:03 source ipv4: 172.16.2.1 dest mac: 00-06-00:00:00:00:00:06 dest ipv4: 172.16.2.4) Payload (size=18) ns3::EthernetTrailer (fcs=0)
+ 2.04044 /NodeList/4/DeviceList/0/$ns3::CsmaNetDevice/TxQueue/Enqueue ns3::EthernetHeader ( length/type=0x800, source=00:00:00:00:00:06, destination=00:00:00:00:00:03) ns3::Ipv4Header (tos 0x0 DSCP Default ECN Not-ECT ttl 64 id 0 protocol 17 offset (bytes) 0 flags [none] length: 1028 172.16.2.4 > 172.16.1.1) ns3::UdpHeader (length: 1008 9 > 49153) Payload (size=1000) ns3::EthernetTrailer (fcs=0)
- 2.04044 /NodeList/4/DeviceList/0/$ns3::CsmaNetDevice/TxQueue/Dequeue ns3::EthernetHeader ( length/type=0x800, source=00:00:00:00:00:06, destination=00:00:00:00:00:03) ns3::Ipv4Header (tos 0x0 DSCP Default ECN Not-ECT ttl 64 id 0 protocol 17 offset (bytes) 0 flags [none] length: 1028 172.16.2.4 > 172.16.1.1) ns3::UdpHeader (length: 1008 9 > 49153) Payload (size=1000) ns3::EthernetTrailer (fcs=0)
r 2.04902 /NodeList/1/DeviceList/1/$ns3::CsmaNetDevice/MacRx ns3::EthernetHeader ( length/type=0x800, source=00:00:00:00:00:06, destination=00:00:00:00:00:03) ns3::Ipv4Header (tos 0x0 DSCP Default ECN Not-ECT ttl 64 id 0 protocol 17 offset (bytes) 0 flags [none] length: 1028 172.16.2.4 > 172.16.1.1) ns3::UdpHeader (length: 1008 9 > 49153) Payload (size=1000) ns3::EthernetTrailer (fcs=0)
+ 3.00849 /NodeList/1/DeviceList/1/$ns3::CsmaNetDevice/TxQueue/Enqueue ns3::EthernetHeader ( length/type=0x800, source=00:00:00:00:00:03, destination=00:00:00:00:00:06) ns3::Ipv4Header (tos 0x0 DSCP Default ECN Not-ECT ttl 63 id 1 protocol 17 offset (bytes) 0 flags [none] length: 1028 172.16.1.1 > 172.16.2.4) ns3::UdpHeader (length: 1008 49153 > 9) Payload (size=1000) ns3::EthernetTrailer (fcs=0)
- 3.00849 /NodeList/1/DeviceList/1/$ns3::CsmaNetDevice/TxQueue/Dequeue ns3::EthernetHeader ( length/type=0x800, source=00:00:00:00:00:03, destination=00:00:00:00:00:06) ns3::Ipv4Header (tos 0x0 DSCP Default ECN Not-ECT ttl 63 id 1 protocol 17 offset (bytes) 0 flags [none] length: 1028 172.16.1.1 > 172.16.2.4) ns3::UdpHeader (length: 1008 49153 > 9) Payload (size=1000) ns3::EthernetTrailer (fcs=0)
r 3.01707 /NodeList/4/DeviceList/0/$ns3::CsmaNetDevice/MacRx ns3::EthernetHeader ( length/type=0x800, source=00:00:00:00:00:03, destination=00:00:00:00:00:06) ns3::Ipv4Header (tos 0x0 DSCP Default ECN Not-ECT ttl 63 id 1 protocol 17 offset (bytes) 0 flags [none] length: 1028 172.16.1.1 > 172.16.2.4) ns3::UdpHeader (length: 1008 49153 > 9) Payload (size=1000) ns3::EthernetTrailer (fcs=0)
+ 3.01707 /NodeList/4/DeviceList/0/$ns3::CsmaNetDevice/TxQueue/Enqueue ns3::EthernetHeader ( length/type=0x800, source=00:00:00:00:00:06, destination=00:00:00:00:00:03) ns3::Ipv4Header (tos 0x0 DSCP Default ECN Not-ECT ttl 64 id 1 protocol 17 offset (bytes) 0 flags [none] length: 1028 172.16.2.4 > 172.16.1.1) ns3::UdpHeader (length: 1008 9 > 49153) Payload (size=1000) ns3::EthernetTrailer (fcs=0)
- 3.01707 /NodeList/4/DeviceList/0/$ns3::CsmaNetDevice/TxQueue/Dequeue ns3::EthernetHeader ( length/type=0x800, source=00:00:00:00:00:06, destination=00:00:00:00:00:03) ns3::Ipv4Header (tos 0x0 DSCP Default ECN Not-ECT ttl 64 id 1 protocol 17 offset (bytes) 0 flags [none] length: 1028 172.16.2.4 > 172.16.1.1) ns3::UdpHeader (length: 1008 9 > 49153) Payload (size=1000) ns3::EthernetTrailer (fcs=0)
r 3.02565 /NodeList/1/DeviceList/1/$ns3::CsmaNetDevice/MacRx ns3::EthernetHeader ( length/type=0x800, source=00:00:00:00:00:06, destination=00:00:00:00:00:03) ns3::Ipv4Header (tos 0x0 DSCP Default ECN Not-ECT ttl 64 id 1 protocol 17 offset (bytes) 0 flags [none] length: 1028 172.16.2.4 > 172.16.1.1) ns3::UdpHeader (length: 1008 9 > 49153) Payload (size=1000) ns3::EthernetTrailer (fcs=0)
+ 4.00849 /NodeList/1/DeviceList/1/$ns3::CsmaNetDevice/TxQueue/Enqueue ns3::EthernetHeader ( length/type=0x800, source=00:00:00:00:00:03, destination=00:00:00:00:00:06) ns3::Ipv4Header (tos 0x0 DSCP Default ECN Not-ECT ttl 63 id 2 protocol 17 offset (bytes) 0 flags [none] length: 1028 172.16.1.1 > 172.16.2.4) ns3::UdpHeader (length: 1008 49153 > 9) Payload (size=1000) ns3::EthernetTrailer (fcs=0)
- 4.00849 /NodeList/1/DeviceList/1/$ns3::CsmaNetDevice/TxQueue/Dequeue ns3::EthernetHeader ( length/type=0x800, source=00:00:00:00:00:03, destination=00:00:00:00:00:06) ns3::Ipv4Header (tos 0x0 DSCP Default ECN Not-ECT ttl 63 id 2 protocol 17 offset (bytes) 0 flags [none] length: 1028 172.16.1.1 > 172.16.2.4) ns3::UdpHeader (length: 1008 49153 > 9) Payload (size=1000) ns3::EthernetTrailer (fcs=0)
r 4.01707 /NodeList/4/DeviceList/0/$ns3::CsmaNetDevice/MacRx ns3::EthernetHeader ( length/type=0x800, source=00:00:00:00:00:03, destination=00:00:00:00:00:06) ns3::Ipv4Header (tos 0x0 DSCP Default ECN Not-ECT ttl 63 id 2 protocol 17 offset (bytes) 0 flags [none] length: 1028 172.16.1.1 > 172.16.2.4) ns3::UdpHeader (length: 1008 49153 > 9) Payload (size=1000) ns3::EthernetTrailer (fcs=0)
+ 4.01707 /NodeList/4/DeviceList/0/$ns3::CsmaNetDevice/TxQueue/Enqueue ns3::EthernetHeader ( length/type=0x800, source=00:00:00:00:00:06, destination=00:00:00:00:00:03) ns3::Ipv4Header (tos 0x0 DSCP Default ECN Not-ECT ttl 64 id 2 protocol 17 offset (bytes) 0 flags [none] length: 1028 172.16.2.4 > 172.16.1.1) ns3::UdpHeader (length: 1008 9 > 49153) Payload (size=1000) ns3::EthernetTrailer (fcs=0)
- 4.01707 /NodeList/4/DeviceList/0/$ns3::CsmaNetDevice/TxQueue/Dequeue ns3::EthernetHeader ( length/type=0x800, source=00:00:00:00:00:06, destination=00:00:00:00:00:03) ns3::Ipv4Header (tos 0x0 DSCP Default ECN Not-ECT ttl 64 id 2 protocol 17 offset (bytes) 0 flags [none] length: 1028 172.16.2.4 > 172.16.1.1) ns3::UdpHeader (length: 1008 9 > 49153) Payload (size=1000) ns3::EthernetTrailer (fcs=0)
r 4.02565 /NodeList/1/DeviceList/1/$ns3::CsmaNetDevice/MacRx ns3::EthernetHeader ( length/type=0x800, source=00:00:00:00:00:06, destination=00:00:00:00:00:03) ns3::Ipv4Header (tos 0x0 DSCP Default ECN Not-ECT ttl 64 id 2 protocol 17 offset (bytes) 0 flags [none] length: 1028 172.16.2.4 > 172.16.1.1) ns3::UdpHeader (length: 1008 9 > 49153) Payload (size=1000) ns3::EthernetTrailer (fcs=0)
+ 5.00849 /NodeList/1/DeviceList/1/$ns3::CsmaNetDevice/TxQueue/Enqueue ns3::EthernetHeader ( length/type=0x800, source=00:00:00:00:00:03, destination=00:00:00:00:00:06) ns3::Ipv4Header (tos 0x0 DSCP Default ECN Not-ECT ttl 63 id 3 protocol 17 offset (bytes) 0 flags [none] length: 1028 172.16.1.1 > 172.16.2.4) ns3::UdpHeader (length: 1008 49153 > 9) Payload (size=1000) ns3::EthernetTrailer (fcs=0)
- 5.00849 /NodeList/1/DeviceList/1/$ns3::CsmaNetDevice/TxQueue/Dequeue ns3::EthernetHeader ( length/type=0x800, source=00:00:00:00:00:03, destination=00:00:00:00:00:06) ns3::Ipv4Header (tos 0x0 DSCP Default ECN Not-ECT ttl 63 id 3 protocol 17 offset (bytes) 0 flags [none] length: 1028 172.16.1.1 > 172.16.2.4) ns3::UdpHeader (length: 1008 49153 > 9) Payload (size=1000) ns3::EthernetTrailer (fcs=0)
r 5.01707 /NodeList/4/DeviceList/0/$ns3::CsmaNetDevice/MacRx ns3::EthernetHeader ( length/type=0x800, source=00:00:00:00:00:03, destination=00:00:00:00:00:06) ns3::Ipv4Header (tos 0x0 DSCP Default ECN Not-ECT ttl 63 id 3 protocol 17 offset (bytes) 0 flags [none] length: 1028 172.16.1.1 > 172.16.2.4) ns3::UdpHeader (length: 1008 49153 > 9) Payload (size=1000) ns3::EthernetTrailer (fcs=0)
+ 5.01707 /NodeList/4/DeviceList/0/$ns3::CsmaNetDevice/TxQueue/Enqueue ns3::EthernetHeader ( length/type=0x800, source=00:00:00:00:00:06, destination=00:00:00:00:00:03) ns3::Ipv4Header (tos 0x0 DSCP Default ECN Not-ECT ttl 64 id 3 protocol 17 offset (bytes) 0 flags [none] length: 1028 172.16.2.4 > 172.16.1.1) ns3::UdpHeader (length: 1008 9 > 49153) Payload (size=1000) ns3::EthernetTrailer (fcs=0)
- 5.01707 /NodeList/4/DeviceList/0/$ns3::CsmaNetDevice/TxQueue/Dequeue ns3::EthernetHeader ( length/type=0x800, source=00:00:00:00:00:06, destination=00:00:00:00:00:03) ns3::Ipv4Header (tos 0x0 DSCP Default ECN Not-ECT ttl 64 id 3 protocol 17 offset (bytes) 0 flags [none] length: 1028 172.16.2.4 > 172.16.1.1) ns3::UdpHeader (length: 1008 9 > 49153) Payload (size=1000) ns3::EthernetTrailer (fcs=0)
r 5.02565 /NodeList/1/DeviceList/1/$ns3::CsmaNetDevice/MacRx ns3::EthernetHeader ( length/type=0x800, source=00:00:00:00:00:06, destination=00:00:00:00:00:03) ns3::Ipv4Header (tos 0x0 DSCP Default ECN Not-ECT ttl 64 id 3 protocol 17 offset (bytes) 0 flags [none] length: 1028 172.16.2.4 > 172.16.1.1) ns3::UdpHeader (length: 1008 9 > 49153) Payload (size=1000) ns3::EthernetTrailer (fcs=0)
+ 6.00849 /NodeList/1/DeviceList/1/$ns3::CsmaNetDevice/TxQueue/Enqueue ns3::EthernetHeader ( length/type=0x800, source=00:00:00:00:00:03, destination=00:00:00:00:00:06) ns3::Ipv4Header (tos 0x0 DSCP Default ECN Not-ECT ttl 63 id 4 protocol 17 offset (bytes) 0 flags [none] length: 1028 172.16.1.1 > 172.16.2.4) ns3::UdpHeader (length: 1008 49153 > 9) Payload (size=1000) ns3::EthernetTrailer (fcs=0)
- 6.00849 /NodeList/1/DeviceList/1/$ns3::CsmaNetDevice/TxQueue/Dequeue ns3::EthernetHeader ( length/type=0x800, source=00:00:00:00:00:03, destination=00:00:00:00:00:06) ns3::Ipv4Header (tos 0x0 DSCP Default ECN Not-ECT ttl 63 id 4 protocol 17 offset (bytes) 0 flags [none] length: 1028 172.16.1.1 > 172.16.2.4) ns3::UdpHeader (length: 1008 49153 > 9) Payload (size=1000) ns3::EthernetTrailer (fcs=0)
r 6.01707 /NodeList/4/DeviceList/0/$ns3::CsmaNetDevice/MacRx ns3::EthernetHeader ( length/type=0x800, source=00:00:00:00:00:03, destination=00:00:00:00:00:06) ns3::Ipv4Header (tos 0x0 DSCP Default ECN Not-ECT ttl 63 id 4 protocol 17 offset (bytes) 0 flags [none] length: 1028 172.16.1.1 > 172.16.2.4) ns3::UdpHeader (length: 1008 49153 > 9) Payload (size=1000) ns3::EthernetTrailer (fcs=0)
+ 6.01707 /NodeList/4/DeviceList/0/$ns3::CsmaNetDevice/TxQueue/Enqueue ns3::EthernetHeader ( length/type=0x800, source=00:00:00:00:00:06, destination=00:00:00:00:00:03) ns3::Ipv4Header (tos 0x0 DSCP Default ECN Not-ECT ttl 64 id 4 protocol 17 offset (bytes) 0 flags [none] length: 1028 172.16.2.4 > 172.16.1.1) ns3::UdpHeader (length: 1008 9 > 49153) Payload (size=1000) ns3::EthernetTrailer (fcs=0)
- 6.01707 /NodeList/4/DeviceList/0/$ns3::CsmaNetDevice/TxQueue/Dequeue ns3::EthernetHeader ( length/type=0x800, source=00:00:00:00:00:06, destination=00:00:00:00:00:03) ns3::Ipv4Header (tos 0x0 DSCP Default ECN Not-ECT ttl 64 id 4 protocol 17 offset (bytes) 0 flags [none] length: 1028 172.16.2.4 > 172.16.1.1) ns3::UdpHeader (length: 1008 9 > 49153) Payload (size=1000) ns3::EthernetTrailer (fcs=0)
r 6.02565 /NodeList/1/DeviceList/1/$ns3::CsmaNetDevice/MacRx ns3::EthernetHeader ( length/type=0x800, source=00:00:00:00:00:06, destination=00:00:00:00:00:03) ns3::Ipv4Header (tos 0x0 DSCP Default ECN Not-ECT ttl 64 id 4 protocol 17 offset (bytes) 0 flags [none] length: 1028 172.16.2.4 > 172.16.1.1) ns3::UdpHeader (length: 1008 9 > 49153) Payload (size=1000) ns3::EthernetTrailer (fcs=0)
+ 7.00849 /NodeList/1/DeviceList/1/$ns3::CsmaNetDevice/TxQueue/Enqueue ns3::EthernetHeader ( length/type=0x800, source=00:00:00:00:00:03, destination=00:00:00:00:00:06) ns3::Ipv4Header (tos 0x0 DSCP Default ECN Not-ECT ttl 63 id 5 protocol 17 offset (bytes) 0 flags [none] length: 1028 172.16.1.1 > 172.16.2.4) ns3::UdpHeader (length: 1008 49153 > 9) Payload (size=1000) ns3::EthernetTrailer (fcs=0)
- 7.00849 /NodeList/1/DeviceList/1/$ns3::CsmaNetDevice/TxQueue/Dequeue ns3::EthernetHeader ( length/type=0x800, source=00:00:00:00:00:03, destination=00:00:00:00:00:06) ns3::Ipv4Header (tos 0x0 DSCP Default ECN Not-ECT ttl 63 id 5 protocol 17 offset (bytes) 0 flags [none] length: 1028 172.16.1.1 > 172.16.2.4) ns3::UdpHeader (length: 1008 49153 > 9) Payload (size=1000) ns3::EthernetTrailer (fcs=0)
r 7.01707 /NodeList/4/DeviceList/0/$ns3::CsmaNetDevice/MacRx ns3::EthernetHeader ( length/type=0x800, source=00:00:00:00:00:03, destination=00:00:00:00:00:06) ns3::Ipv4Header (tos 0x0 DSCP Default ECN Not-ECT ttl 63 id 5 protocol 17 offset (bytes) 0 flags [none] length: 1028 172.16.1.1 > 172.16.2.4) ns3::UdpHeader (length: 1008 49153 > 9) Payload (size=1000) ns3::EthernetTrailer (fcs=0)
+ 7.01707 /NodeList/4/DeviceList/0/$ns3::CsmaNetDevice/TxQueue/Enqueue ns3::EthernetHeader ( length/type=0x800, source=00:00:00:00:00:06, destination=00:00:00:00:00:03) ns3::Ipv4Header (tos 0x0 DSCP Default ECN Not-ECT ttl 64 id 5 protocol 17 offset (bytes) 0 flags [none] length: 1028 172.16.2.4 > 172.16.1.1) ns3::UdpHeader (length: 1008 9 > 49153) Payload (size=1000) ns3::EthernetTrailer (fcs=0)
- 7.01707 /NodeList/4/DeviceList/0/$ns3::CsmaNetDevice/TxQueue/Dequeue ns3::EthernetHeader ( length/type=0x800, source=00:00:00:00:00:06, destination=00:00:00:00:00:03) ns3::Ipv4Header (tos 0x0 DSCP Default ECN Not-ECT ttl 64 id 5 protocol 17 offset (bytes) 0 flags [none] length: 1028 172.16.2.4 > 172.16.1.1) ns3::UdpHeader (length: 1008 9 > 49153) Payload (size=1000) ns3::EthernetTrailer (fcs=0)
r 7.02565 /NodeList/1/DeviceList/1/$ns3::CsmaNetDevice/MacRx ns3::EthernetHeader ( length/type=0x800, source=00:00:00:00:00:06, destination=00:00:00:00:00:03) ns3::Ipv4Header (tos 0x0 DSCP Default ECN Not-ECT ttl 64 id 5 protocol 17 offset (bytes) 0 flags [none] length: 1028 172.16.2.4 > 172.16.1.1) ns3::UdpHeader (length: 1008 9 > 49153) Payload (size=1000) ns3::EthernetTrailer (fcs=0)
+ 8.00849 /NodeList/1/DeviceList/1/$ns3::CsmaNetDevice/TxQueue/Enqueue ns3::EthernetHeader ( length/type=0x800, source=00:00:00:00:00:03, destination=00:00:00:00:00:06) ns3::Ipv4Header (tos 0x0 DSCP Default ECN Not-ECT ttl 63 id 6 protocol 17 offset (bytes) 0 flags [none] length: 1028 172.16.1.1 > 172.16.2.4) ns3::UdpHeader (length: 1008 49153 > 9) Payload (size=1000) ns3::EthernetTrailer (fcs=0)
- 8.00849 /NodeList/1/DeviceList/1/$ns3::CsmaNetDevice/TxQueue/Dequeue ns3::EthernetHeader ( length/type=0x800, source=00:00:00:00:00:03, destination=00:00:00:00:00:06) ns3::Ipv4Header (tos 0x0 DSCP Default ECN Not-ECT ttl 63 id 6 protocol 17 offset (bytes) 0 flags [none] length: 1028 172.16.1.1 > 172.16.2.4) ns3::UdpHeader (length: 1008 49153 > 9) Payload (size=1000) ns3::EthernetTrailer (fcs=0)
r 8.01707 /NodeList/4/DeviceList/0/$ns3::CsmaNetDevice/MacRx ns3::EthernetHeader ( length/type=0x800, source=00:00:00:00:00:03, destination=00:00:00:00:00:06) ns3::Ipv4Header (tos 0x0 DSCP Default ECN Not-ECT ttl 63 id 6 protocol 17 offset (bytes) 0 flags [none] length: 1028 172.16.1.1 > 172.16.2.4) ns3::UdpHeader (length: 1008 49153 > 9) Payload (size=1000) ns3::EthernetTrailer (fcs=0)
+ 8.01707 /NodeList/4/DeviceList/0/$ns3::CsmaNetDevice/TxQueue/Enqueue ns3::EthernetHeader ( length/type=0x800, source=00:00:00:00:00:06, destination=00:00:00:00:00:03) ns3::Ipv4Header (tos 0x0 DSCP Default ECN Not-ECT ttl 64 id 6 protocol 17 offset (bytes) 0 flags [none] length: 1028 172.16.2.4 > 172.16.1.1) ns3::UdpHeader (length: 1008 9 > 49153) Payload (size=1000) ns3::EthernetTrailer (fcs=0)
- 8.01707 /NodeList/4/DeviceList/0/$ns3::CsmaNetDevice/TxQueue/Dequeue ns3::EthernetHeader ( length/type=0x800, source=00:00:00:00:00:06, destination=00:00:00:00:00:03) ns3::Ipv4Header (tos 0x0 DSCP Default ECN Not-ECT ttl 64 id 6 protocol 17 offset (bytes) 0 flags [none] length: 1028 172.16.2.4 > 172.16.1.1) ns3::UdpHeader (length: 1008 9 > 49153) Payload (size=1000) ns3::EthernetTrailer (fcs=0)
r 8.02565 /NodeList/1/DeviceList/1/$ns3::CsmaNetDevice/MacRx ns3::EthernetHeader ( length/type=0x800, source=00:00:00:00:00:06, destination=00:00:00:00:00:03) ns3::Ipv4Header (tos 0x0 DSCP Default ECN Not-ECT ttl 64 id 6 protocol 17 offset (bytes) 0 flags [none] length: 1028 172.16.2.4 > 172.16.1.1) ns3::UdpHeader (length: 1008 9 > 49153) Payload (size=1000) ns3::EthernetTrailer (fcs=0)
+ 9.00849 /NodeList/1/DeviceList/1/$ns3::CsmaNetDevice/TxQueue/Enqueue ns3::EthernetHeader ( length/type=0x800, source=00:00:00:00:00:03, destination=00:00:00:00:00:06) ns3::Ipv4Header (tos 0x0 DSCP Default ECN Not-ECT ttl 63 id 7 protocol 17 offset (bytes) 0 flags [none] length: 1028 172.16.1.1 > 172.16.2.4) ns3::UdpHeader (length: 1008 49153 > 9) Payload (size=1000) ns3::EthernetTrailer (fcs=0)
- 9.00849 /NodeList/1/DeviceList/1/$ns3::CsmaNetDevice/TxQueue/Dequeue ns3::EthernetHeader ( length/type=0x800, source=00:00:00:00:00:03, destination=00:00:00:00:00:06) ns3::Ipv4Header (tos 0x0 DSCP Default ECN Not-ECT ttl 63 id 7 protocol 17 offset (bytes) 0 flags [none] length: 1028 172.16.1.1 > 172.16.2.4) ns3::UdpHeader (length: 1008 49153 > 9) Payload (size=1000) ns3::EthernetTrailer (fcs=0)
r 9.01707 /NodeList/4/DeviceList/0/$ns3::CsmaNetDevice/MacRx ns3::EthernetHeader ( length/type=0x800, source=00:00:00:00:00:03, destination=00:00:00:00:00:06) ns3::Ipv4Header (tos 0x0 DSCP Default ECN Not-ECT ttl 63 id 7 protocol 17 offset (bytes) 0 flags [none] length: 1028 172.16.1.1 > 172.16.2.4) ns3::UdpHeader (length: 1008 49153 > 9) Payload (size=1000) ns3::EthernetTrailer (fcs=0)
+ 9.01707 /NodeList/4/DeviceList/0/$ns3::CsmaNetDevice/TxQueue/Enqueue ns3::EthernetHeader ( length/type=0x800, source=00:00:00:00:00:06, destination=00:00:00:00:00:03) ns3::Ipv4Header (tos 0x0 DSCP Default ECN Not-ECT ttl 64 id 7 protocol 17 offset (bytes) 0 flags [none] length: 1028 172.16.2.4 > 172.16.1.1) ns3::UdpHeader (length: 1008 9 > 49153) Payload (size=1000) ns3::EthernetTrailer (fcs=0)
- 9.01707 /NodeList/4/DeviceList/0/$ns3::CsmaNetDevice/TxQueue/Dequeue ns3::EthernetHeader ( length/type=0x800, source=00:00:00:00:00:06, destination=00:00:00:00:00:03) ns3::Ipv4Header (tos 0x0 DSCP Default ECN Not-ECT ttl 64 id 7 protocol 17 offset (bytes) 0 flags [none] length: 1028 172.16.2.4 > 172.16.1.1) ns3::UdpHeader (length: 1008 9 > 49153) Payload (size=1000) ns3::EthernetTrailer (fcs=0)
r 9.02565 /NodeList/1/DeviceList/1/$ns3::CsmaNetDevice/MacRx ns3::EthernetHeader ( length/type=0x800, source=00:00:00:00:00:06, destination=00:00:00:00:00:03) ns3::Ipv4Header (tos 0x0 DSCP Default ECN Not-ECT ttl 64 id 7 protocol 17 offset (bytes) 0 flags [none] length: 1028 172.16.2.4 > 172.16.1.1) ns3::UdpHeader (length: 1008 9 > 49153) Payload (size=1000) ns3::EthernetTrailer (fcs=0)
+ 10.0085 /NodeList/1/DeviceList/1/$ns3::CsmaNetDevice/TxQueue/Enqueue ns3::EthernetHeader ( length/type=0x800, source=00:00:00:00:00:03, destination=00:00:00:00:00:06) ns3::Ipv4Header (tos 0x0 DSCP Default ECN Not-ECT ttl 63 id 8 protocol 17 offset (bytes) 0 flags [none] length: 1028 172.16.1.1 > 172.16.2.4) ns3::UdpHeader (length: 1008 49153 > 9) Payload (size=1000) ns3::EthernetTrailer (fcs=0)
- 10.0085 /NodeList/1/DeviceList/1/$ns3::CsmaNetDevice/TxQueue/Dequeue ns3::EthernetHeader ( length/type=0x800, source=00:00:00:00:00:03, destination=00:00:00:00:00:06) ns3::Ipv4Header (tos 0x0 DSCP Default ECN Not-ECT ttl 63 id 8 protocol 17 offset (bytes) 0 flags [none] length: 1028 172.16.1.1 > 172.16.2.4) ns3::UdpHeader (length: 1008 49153 > 9) Payload (size=1000) ns3::EthernetTrailer (fcs=0)
r 10.0171 /NodeList/4/DeviceList/0/$ns3::CsmaNetDevice/MacRx ns3::EthernetHeader ( length/type=0x800, source=00:00:00:00:00:03, destination=00:00:00:00:00:06) ns3::Ipv4Header (tos 0x0 DSCP Default ECN Not-ECT ttl 63 id 8 protocol 17 offset (bytes) 0 flags [none] length: 1028 172.16.1.1 > 172.16.2.4) ns3::UdpHeader (length: 1008 49153 > 9) Payload (size=1000) ns3::EthernetTrailer (fcs=0)
+ 10.0171 /NodeList/4/DeviceList/0/$ns3::CsmaNetDevice/TxQueue/Enqueue ns3::EthernetHeader ( length/type=0x800, source=00:00:00:00:00:06, destination=00:00:00:00:00:03) ns3::Ipv4Header (tos 0x0 DSCP Default ECN Not-ECT ttl 64 id 8 protocol 17 offset (bytes) 0 flags [none] length: 1028 172.16.2.4 > 172.16.1.1) ns3::UdpHeader (length: 1008 9 > 49153) Payload (size=1000) ns3::EthernetTrailer (fcs=0)
- 10.0171 /NodeList/4/DeviceList/0/$ns3::CsmaNetDevice/TxQueue/Dequeue ns3::EthernetHeader ( length/type=0x800, source=00:00:00:00:00:06, destination=00:00:00:00:00:03) ns3::Ipv4Header (tos 0x0 DSCP Default ECN Not-ECT ttl 64 id 8 protocol 17 offset (bytes) 0 flags [none] length: 1028 172.16.2.4 > 172.16.1.1) ns3::UdpHeader (length: 1008 9 > 49153) Payload (size=1000) ns3::EthernetTrailer (fcs=0)
r 10.0257 /NodeList/1/DeviceList/1/$ns3::CsmaNetDevice/MacRx ns3::EthernetHeader ( length/type=0x800, source=00:00:00:00:00:06, destination=00:00:00:00:00:03) ns3::Ipv4Header (tos 0x0 DSCP Default ECN Not-ECT ttl 64 id 8 protocol 17 offset (bytes) 0 flags [none] length: 1028 172.16.2.4 > 172.16.1.1) ns3::UdpHeader (length: 1008 9 > 49153) Payload (size=1000) ns3::EthernetTrailer (fcs=0)
+ 11.0085 /NodeList/1/DeviceList/1/$ns3::CsmaNetDevice/TxQueue/Enqueue ns3::EthernetHeader ( length/type=0x800, source=00:00:00:00:00:03, destination=00:00:00:00:00:06) ns3::Ipv4Header (tos 0x0 DSCP Default ECN Not-ECT ttl 63 id 9 protocol 17 offset (bytes) 0 flags [none] length: 1028 172.16.1.1 > 172.16.2.4) ns3::UdpHeader (length: 1008 49153 > 9) Payload (size=1000) ns3::EthernetTrailer (fcs=0)
- 11.0085 /NodeList/1/DeviceList/1/$ns3::CsmaNetDevice/TxQueue/Dequeue ns3::EthernetHeader ( length/type=0x800, source=00:00:00:00:00:03, destination=00:00:00:00:00:06) ns3::Ipv4Header (tos 0x0 DSCP Default ECN Not-ECT ttl 63 id 9 protocol 17 offset (bytes) 0 flags [none] length: 1028 172.16.1.1 > 172.16.2.4) ns3::UdpHeader (length: 1008 49153 > 9) Payload (size=1000) ns3::EthernetTrailer (fcs=0)
r 11.0171 /NodeList/4/DeviceList/0/$ns3::CsmaNetDevice/MacRx ns3::EthernetHeader ( length/type=0x800, source=00:00:00:00:00:03, destination=00:00:00:00:00:06) ns3::Ipv4Header (tos 0x0 DSCP Default ECN Not-ECT ttl 63 id 9 protocol 17 offset (bytes) 0 flags [none] length: 1028 172.16.1.1 > 172.16.2.4) ns3::UdpHeader (length: 1008 49153 > 9) Payload (size=1000) ns3::EthernetTrailer (fcs=0)
+ 11.0171 /NodeList/4/DeviceList/0/$ns3::CsmaNetDevice/TxQueue/Enqueue ns3::EthernetHeader ( length/type=0x800, source=00:00:00:00:00:06, destination=00:00:00:00:00:03) ns3::Ipv4Header (tos 0x0 DSCP Default ECN Not-ECT ttl 64 id 9 protocol 17 offset (bytes) 0 flags [none] length: 1028 172.16.2.4 > 172.16.1.1) ns3::UdpHeader (length: 1008 9 > 49153) Payload (size=1000) ns3::EthernetTrailer (fcs=0)
- 11.0171 /NodeList/4/DeviceList/0/$ns3::CsmaNetDevice/TxQueue/Dequeue ns3::EthernetHeader ( length/type=0x800, source=00:00:00:00:00:06, destination=00:00:00:00:00:03) ns3::Ipv4Header (tos 0x0 DSCP Default ECN Not-ECT ttl 64 id 9 protocol 17 offset (bytes) 0 flags [none] length: 1028 172.16.2.4 > 172.16.1.1) ns3::UdpHeader (length: 1008 9 > 49153) Payload (size=1000) ns3::EthernetTrailer (fcs=0)
r 11.0257 /NodeList/1/DeviceList/1/$ns3::CsmaNetDevice/MacRx ns3::EthernetHeader ( length/type=0x800, source=00:00:00:00:00:06, destination=00:00:00:00:00:03) ns3::Ipv4Header (tos 0x0 DSCP Default ECN Not-ECT ttl 64 id 9 protocol 17 offset (bytes) 0 flags [none] length: 1028 172.16.2.4 > 172.16.1.1) ns3::UdpHeader (length: 1008 9 > 49153) Payload (size=1000) ns3::EthernetTrailer (fcs=0)
+ 12.0085 /NodeList/1/DeviceList/1/$ns3::CsmaNetDevice/TxQueue/Enqueue ns3::EthernetHeader ( length/type=0x800, source=00:00:00:00:00:03, destination=00:00:00:00:00:06) ns3::Ipv4Header (tos 0x0 DSCP Default ECN Not-ECT ttl 63 id 10 protocol 17 offset (bytes) 0 flags [none] length: 1028 172.16.1.1 > 172.16.2.4) ns3::UdpHeader (length: 1008 49153 > 9) Payload (size=1000) ns3::EthernetTrailer (fcs=0)
- 12.0085 /NodeList/1/DeviceList/1/$ns3::CsmaNetDevice/TxQueue/Dequeue ns3::EthernetHeader ( length/type=0x800, source=00:00:00:00:00:03, destination=00:00:00:00:00:06) ns3::Ipv4Header (tos 0x0 DSCP Default ECN Not-ECT ttl 63 id 10 protocol 17 offset (bytes) 0 flags [none] length: 1028 172.16.1.1 > 172.16.2.4) ns3::UdpHeader (length: 1008 49153 > 9) Payload (size=1000) ns3::EthernetTrailer (fcs=0)